 # Fcc Al.
 CRYSTAL
 PRIMVEC
    161.84000000        0.00000000        0.00000000
      0.00000000      161.84000000        0.00000000
      0.00000000        0.00000000      161.84000000
 CONVVEC
    161.84000000        0.00000000        0.00000000
      0.00000000      161.84000000        0.00000000
      0.00000000        0.00000000      161.84000000
 PRIMCOORD
    15872 1
13      123.40300000        2.02300000        0.00000000
13      127.44900000        2.02300000        0.00000000
13      125.42600000        2.02300000        2.02300000
13      129.47200000        2.02300000        2.02300000
13        0.00000000        4.04600000        0.00000000
13        2.02300000        6.06900000        0.00000000
13        0.00000000        6.06900000        2.02300000
13        2.02300000        4.04600000        2.02300000
13        4.04600000        4.04600000        0.00000000
13        6.06900000        6.06900000        0.00000000
13        4.04600000        6.06900000        2.02300000
13      121.38000000        4.04600000        0.00000000
13      123.40300000        6.06900000        0.00000000
13      123.40300000        4.04600000        2.02300000
13      125.42600000        4.04600000        0.00000000
13      127.44900000        6.06900000        0.00000000
13      125.42600000        6.06900000        2.02300000
13      127.44900000        4.04600000        2.02300000
13      129.47200000        4.04600000        0.00000000
13      129.47200000        6.06900000        2.02300000
13        0.00000000        8.09200000        0.00000000
13        2.02300000       10.11500000        0.00000000
13        0.00000000       10.11500000        2.02300000
13        2.02300000        8.09200000        2.02300000
13        4.04600000        8.09200000        0.00000000
13        6.06900000       10.11500000        0.00000000
13        4.04600000       10.11500000        2.02300000
13        6.06900000        8.09200000        2.02300000
13        8.09200000        8.09200000        0.00000000
13       91.03500000       10.11500000        0.00000000
13       93.05800000        8.09200000        0.00000000
13       95.08100000       10.11500000        0.00000000
13       93.05800000       10.11500000        2.02300000
13       95.08100000        8.09200000        2.02300000
13       97.10400000        8.09200000        0.00000000
13       99.12700000       10.11500000        0.00000000
13       97.10400000       10.11500000        2.02300000
13       99.12700000        8.09200000        2.02300000
13      101.15000000       10.11500000        2.02300000
13      123.40300000        8.09200000        2.02300000
13      125.42600000        8.09200000        0.00000000
13      127.44900000        8.09200000        2.02300000
13      129.47200000        8.09200000        0.00000000
13      159.81700000        8.09200000        2.02300000
13       78.89700000       14.16100000        0.00000000
13       82.94300000       14.16100000        0.00000000
13       80.92000000       14.16100000        2.02300000
13       82.94300000       12.13800000        2.02300000
13       84.96600000       14.16100000        2.02300000
13       91.03500000       14.16100000        0.00000000
13       93.05800000       12.13800000        0.00000000
13       95.08100000       14.16100000        0.00000000
13       93.05800000       14.16100000        2.02300000
13       95.08100000       12.13800000        2.02300000
13       97.10400000       12.13800000        0.00000000
13       99.12700000       14.16100000        0.00000000
13       97.10400000       14.16100000        2.02300000
13       99.12700000       12.13800000        2.02300000
13       78.89700000       18.20700000        0.00000000
13       78.89700000       16.18400000        2.02300000
13       80.92000000       16.18400000        0.00000000
13       82.94300000       18.20700000        0.00000000
13       80.92000000       18.20700000        2.02300000
13       82.94300000       16.18400000        2.02300000
13       84.96600000       16.18400000        0.00000000
13       86.98900000       18.20700000        0.00000000
13       84.96600000       18.20700000        2.02300000
13       86.98900000       16.18400000        2.02300000
13       93.05800000       16.18400000        0.00000000
13       80.92000000       20.23000000        0.00000000
13       82.94300000       20.23000000        2.02300000
13       84.96600000       20.23000000        0.00000000
13       18.20700000       54.62100000        0.00000000
13       18.20700000       52.59800000        2.02300000
13       20.23000000       52.59800000        0.00000000
13       22.25300000       54.62100000        0.00000000
13       20.23000000       54.62100000        2.02300000
13       22.25300000       52.59800000        2.02300000
13       24.27600000       54.62100000        2.02300000
13       44.50600000       54.62100000        2.02300000
13       46.52900000       52.59800000        2.02300000
13       48.55200000       54.62100000        2.02300000
13       50.57500000       52.59800000        2.02300000
13       18.20700000       58.66700000        0.00000000
13       18.20700000       56.64400000        2.02300000
13       20.23000000       56.64400000        0.00000000
13       22.25300000       58.66700000        0.00000000
13       20.23000000       58.66700000        2.02300000
13       22.25300000       56.64400000        2.02300000
13       24.27600000       56.64400000        0.00000000
13       24.27600000       58.66700000        2.02300000
13       42.48300000       56.64400000        2.02300000
13       44.50600000       56.64400000        0.00000000
13       46.52900000       58.66700000        0.00000000
13       44.50600000       58.66700000        2.02300000
13       46.52900000       56.64400000        2.02300000
13       48.55200000       56.64400000        0.00000000
13       48.55200000       58.66700000        2.02300000
13       50.57500000       56.64400000        2.02300000
13       18.20700000       62.71300000        0.00000000
13       18.20700000       60.69000000        2.02300000
13       20.23000000       60.69000000        0.00000000
13       22.25300000       62.71300000        0.00000000
13       20.23000000       62.71300000        2.02300000
13       22.25300000       60.69000000        2.02300000
13       24.27600000       60.69000000        0.00000000
13       46.52900000       60.69000000        2.02300000
13       48.55200000       60.69000000        0.00000000
13       48.55200000       62.71300000        2.02300000
13       20.23000000       64.73600000        0.00000000
13       78.89700000       74.85100000        0.00000000
13       80.92000000       72.82800000        0.00000000
13       82.94300000       74.85100000        0.00000000
13       80.92000000       74.85100000        2.02300000
13       82.94300000       72.82800000        2.02300000
13       86.98900000       74.85100000        0.00000000
13       84.96600000       74.85100000        2.02300000
13       78.89700000       78.89700000        0.00000000
13       78.89700000       76.87400000        2.02300000
13       80.92000000       76.87400000        0.00000000
13       82.94300000       78.89700000        0.00000000
13       80.92000000       78.89700000        2.02300000
13       82.94300000       76.87400000        2.02300000
13       84.96600000       76.87400000        0.00000000
13       86.98900000       78.89700000        0.00000000
13       84.96600000       78.89700000        2.02300000
13       86.98900000       76.87400000        2.02300000
13       80.92000000       80.92000000        0.00000000
13       82.94300000       80.92000000        2.02300000
13       84.96600000       80.92000000        0.00000000
13      131.49500000       86.98900000        0.00000000
13      129.47200000       86.98900000        2.02300000
13      131.49500000       84.96600000        2.02300000
13      133.51800000       84.96600000        0.00000000
13      135.54100000       86.98900000        0.00000000
13      133.51800000       86.98900000        2.02300000
13      135.54100000       84.96600000        2.02300000
13      137.56400000       84.96600000        0.00000000
13      139.58700000       86.98900000        0.00000000
13      137.56400000       86.98900000        2.02300000
13       97.10400000       91.03500000        2.02300000
13       99.12700000       89.01200000        2.02300000
13      101.15000000       91.03500000        2.02300000
13      127.44900000       89.01200000        2.02300000
13      129.47200000       89.01200000        0.00000000
13      131.49500000       91.03500000        0.00000000
13      129.47200000       91.03500000        2.02300000
13      131.49500000       89.01200000        2.02300000
13      133.51800000       89.01200000        0.00000000
13      135.54100000       91.03500000        0.00000000
13      133.51800000       91.03500000        2.02300000
13      135.54100000       89.01200000        2.02300000
13      137.56400000       89.01200000        0.00000000
13       38.43700000       95.08100000        0.00000000
13       42.48300000       95.08100000        0.00000000
13       40.46000000       95.08100000        2.02300000
13       54.62100000       95.08100000        0.00000000
13       52.59800000       95.08100000        2.02300000
13       54.62100000       93.05800000        2.02300000
13       56.64400000       93.05800000        0.00000000
13       58.66700000       95.08100000        0.00000000
13       56.64400000       95.08100000        2.02300000
13       95.08100000       95.08100000        0.00000000
13       93.05800000       95.08100000        2.02300000
13       95.08100000       93.05800000        2.02300000
13       97.10400000       93.05800000        0.00000000
13       99.12700000       95.08100000        0.00000000
13       97.10400000       95.08100000        2.02300000
13       99.12700000       93.05800000        2.02300000
13      101.15000000       95.08100000        2.02300000
13      131.49500000       93.05800000        2.02300000
13       36.41400000       97.10400000        0.00000000
13       38.43700000       99.12700000        0.00000000
13       36.41400000       99.12700000        2.02300000
13       38.43700000       97.10400000        2.02300000
13       40.46000000       97.10400000        0.00000000
13       42.48300000       99.12700000        0.00000000
13       40.46000000       99.12700000        2.02300000
13       42.48300000       97.10400000        2.02300000
13       44.50600000       99.12700000        2.02300000
13       52.59800000       97.10400000        0.00000000
13       54.62100000       99.12700000        0.00000000
13       52.59800000       99.12700000        2.02300000
13       54.62100000       97.10400000        2.02300000
13       56.64400000       97.10400000        0.00000000
13       58.66700000       99.12700000        0.00000000
13       56.64400000       99.12700000        2.02300000
13       58.66700000       97.10400000        2.02300000
13       93.05800000       97.10400000        0.00000000
13       95.08100000       99.12700000        0.00000000
13       93.05800000       99.12700000        2.02300000
13       95.08100000       97.10400000        2.02300000
13       97.10400000       97.10400000        0.00000000
13       99.12700000       99.12700000        0.00000000
13       97.10400000       99.12700000        2.02300000
13       99.12700000       97.10400000        2.02300000
13      101.15000000       97.10400000        0.00000000
13      101.15000000       99.12700000        2.02300000
13        8.09200000      103.17300000        2.02300000
13       36.41400000      101.15000000        0.00000000
13       38.43700000      103.17300000        0.00000000
13       36.41400000      103.17300000        2.02300000
13       38.43700000      101.15000000        2.02300000
13       40.46000000      101.15000000        0.00000000
13       42.48300000      103.17300000        0.00000000
13       40.46000000      103.17300000        2.02300000
13       42.48300000      101.15000000        2.02300000
13       44.50600000      103.17300000        2.02300000
13       54.62100000      101.15000000        2.02300000
13       93.05800000      101.15000000        0.00000000
13       95.08100000      103.17300000        0.00000000
13       95.08100000      101.15000000        2.02300000
13       97.10400000      101.15000000        0.00000000
13       99.12700000      103.17300000        0.00000000
13       97.10400000      103.17300000        2.02300000
13       99.12700000      101.15000000        2.02300000
13        6.06900000      107.21900000        0.00000000
13        4.04600000      107.21900000        2.02300000
13        6.06900000      105.19600000        2.02300000
13        8.09200000      105.19600000        0.00000000
13       10.11500000      107.21900000        0.00000000
13        8.09200000      107.21900000        2.02300000
13       10.11500000      105.19600000        2.02300000
13       12.13800000      105.19600000        0.00000000
13       14.16100000      107.21900000        0.00000000
13       12.13800000      107.21900000        2.02300000
13       14.16100000      105.19600000        2.02300000
13       18.20700000      107.21900000        0.00000000
13       16.18400000      107.21900000        2.02300000
13       30.34500000      107.21900000        0.00000000
13       34.39100000      107.21900000        0.00000000
13       32.36800000      107.21900000        2.02300000
13       36.41400000      107.21900000        2.02300000
13       38.43700000      105.19600000        2.02300000
13       40.46000000      105.19600000        0.00000000
13       40.46000000      107.21900000        2.02300000
13       42.48300000      105.19600000        2.02300000
13       93.05800000      105.19600000        0.00000000
13       95.08100000      107.21900000        0.00000000
13       95.08100000      105.19600000        2.02300000
13       97.10400000      105.19600000        0.00000000
13        6.06900000      109.24200000        2.02300000
13        8.09200000      109.24200000        0.00000000
13       10.11500000      111.26500000        0.00000000
13        8.09200000      111.26500000        2.02300000
13       10.11500000      109.24200000        2.02300000
13       12.13800000      109.24200000        0.00000000
13       14.16100000      111.26500000        0.00000000
13       12.13800000      111.26500000        2.02300000
13       14.16100000      109.24200000        2.02300000
13       16.18400000      109.24200000        0.00000000
13       18.20700000      111.26500000        0.00000000
13       16.18400000      111.26500000        2.02300000
13       30.34500000      111.26500000        0.00000000
13       30.34500000      109.24200000        2.02300000
13       32.36800000      109.24200000        0.00000000
13       34.39100000      111.26500000        0.00000000
13       32.36800000      111.26500000        2.02300000
13       34.39100000      109.24200000        2.02300000
13       36.41400000      109.24200000        0.00000000
13       36.41400000      111.26500000        2.02300000
13       12.13800000      113.28800000        0.00000000
13       14.16100000      113.28800000        2.02300000
13       16.18400000      113.28800000        0.00000000
13       20.23000000      113.28800000        0.00000000
13       30.34500000      113.28800000        2.02300000
13       32.36800000      113.28800000        0.00000000
13       34.39100000      113.28800000        2.02300000
13       36.41400000      113.28800000        0.00000000
13      129.47200000      117.33400000        0.00000000
13      131.49500000      119.35700000        0.00000000
13      135.54100000      119.35700000        0.00000000
13      129.47200000      121.38000000        0.00000000
13      131.49500000      123.40300000        0.00000000
13      131.49500000      121.38000000        2.02300000
13      133.51800000      121.38000000        0.00000000
13      135.54100000      123.40300000        0.00000000
13      133.51800000      123.40300000        2.02300000
13      135.54100000      121.38000000        2.02300000
13      137.56400000      121.38000000        0.00000000
13      139.58700000      123.40300000        0.00000000
13      137.56400000      123.40300000        2.02300000
13      133.51800000      125.42600000        0.00000000
13      135.54100000      127.44900000        0.00000000
13      133.51800000      127.44900000        2.02300000
13      135.54100000      125.42600000        2.02300000
13      137.56400000      125.42600000        0.00000000
13      139.58700000      127.44900000        0.00000000
13      137.56400000      127.44900000        2.02300000
13      139.58700000      125.42600000        2.02300000
13      141.61000000      125.42600000        0.00000000
13      143.63300000      127.44900000        0.00000000
13      141.61000000      127.44900000        2.02300000
13      143.63300000      125.42600000        2.02300000
13      145.65600000      127.44900000        2.02300000
13      135.54100000      129.47200000        2.02300000
13      137.56400000      129.47200000        0.00000000
13      139.58700000      131.49500000        0.00000000
13      137.56400000      131.49500000        2.02300000
13      139.58700000      129.47200000        2.02300000
13      141.61000000      129.47200000        0.00000000
13      143.63300000      131.49500000        0.00000000
13      141.61000000      131.49500000        2.02300000
13      143.63300000      129.47200000        2.02300000
13      145.65600000      131.49500000        2.02300000
13      143.63300000      133.51800000        2.02300000
13      145.65600000      135.54100000        2.02300000
13      147.67900000      133.51800000        2.02300000
13      127.44900000        2.02300000        4.04600000
13        0.00000000        4.04600000        4.04600000
13        2.02300000        6.06900000        4.04600000
13        0.00000000        6.06900000        6.06900000
13        2.02300000        4.04600000        6.06900000
13        4.04600000        4.04600000        4.04600000
13        6.06900000        6.06900000        4.04600000
13        4.04600000        6.06900000        6.06900000
13       99.12700000        6.06900000        4.04600000
13      101.15000000        6.06900000        6.06900000
13      123.40300000        6.06900000        4.04600000
13      125.42600000        4.04600000        4.04600000
13      127.44900000        6.06900000        4.04600000
13      125.42600000        6.06900000        6.06900000
13      127.44900000        4.04600000        6.06900000
13      129.47200000        4.04600000        4.04600000
13      131.49500000        6.06900000        4.04600000
13      129.47200000        6.06900000        6.06900000
13      131.49500000        4.04600000        6.06900000
13      133.51800000        6.06900000        6.06900000
13      159.81700000        6.06900000        4.04600000
13      157.79400000        6.06900000        6.06900000
13      159.81700000        4.04600000        6.06900000
13        0.00000000        8.09200000        4.04600000
13        2.02300000       10.11500000        4.04600000
13        0.00000000       10.11500000        6.06900000
13        2.02300000        8.09200000        6.06900000
13        4.04600000        8.09200000        4.04600000
13       95.08100000       10.11500000        4.04600000
13       95.08100000        8.09200000        6.06900000
13       97.10400000        8.09200000        4.04600000
13       99.12700000       10.11500000        4.04600000
13       97.10400000       10.11500000        6.06900000
13       99.12700000        8.09200000        6.06900000
13      101.15000000        8.09200000        4.04600000
13      103.17300000       10.11500000        4.04600000
13      101.15000000       10.11500000        6.06900000
13      103.17300000        8.09200000        6.06900000
13      105.19600000       10.11500000        6.06900000
13      125.42600000        8.09200000        4.04600000
13      127.44900000       10.11500000        4.04600000
13      127.44900000        8.09200000        6.06900000
13      129.47200000        8.09200000        4.04600000
13      129.47200000       10.11500000        6.06900000
13      131.49500000        8.09200000        6.06900000
13      159.81700000       10.11500000        4.04600000
13      159.81700000        8.09200000        6.06900000
13       82.94300000       14.16100000        4.04600000
13       82.94300000       12.13800000        6.06900000
13       84.96600000       12.13800000        4.04600000
13       86.98900000       14.16100000        4.04600000
13       84.96600000       14.16100000        6.06900000
13       86.98900000       12.13800000        6.06900000
13       89.01200000       14.16100000        6.06900000
13       91.03500000       12.13800000        6.06900000
13       93.05800000       12.13800000        4.04600000
13       95.08100000       14.16100000        4.04600000
13       95.08100000       12.13800000        6.06900000
13       97.10400000       12.13800000        4.04600000
13       99.12700000       14.16100000        4.04600000
13       97.10400000       14.16100000        6.06900000
13       99.12700000       12.13800000        6.06900000
13      101.15000000       12.13800000        4.04600000
13      101.15000000       14.16100000        6.06900000
13      103.17300000       12.13800000        6.06900000
13       80.92000000       16.18400000        4.04600000
13       82.94300000       18.20700000        4.04600000
13       82.94300000       16.18400000        6.06900000
13       84.96600000       16.18400000        4.04600000
13       86.98900000       18.20700000        4.04600000
13       84.96600000       18.20700000        6.06900000
13       86.98900000       16.18400000        6.06900000
13       89.01200000       16.18400000        4.04600000
13       89.01200000       18.20700000        6.06900000
13       91.03500000       16.18400000        6.06900000
13       84.96600000       20.23000000        4.04600000
13       52.59800000       46.52900000        6.06900000
13       54.62100000       44.50600000        6.06900000
13       56.64400000       46.52900000        6.06900000
13       22.25300000       50.57500000        4.04600000
13       20.23000000       50.57500000        6.06900000
13       22.25300000       48.55200000        6.06900000
13       24.27600000       50.57500000        6.06900000
13       50.57500000       50.57500000        4.04600000
13       48.55200000       50.57500000        6.06900000
13       50.57500000       48.55200000        6.06900000
13       52.59800000       48.55200000        4.04600000
13       54.62100000       50.57500000        4.04600000
13       52.59800000       50.57500000        6.06900000
13       54.62100000       48.55200000        6.06900000
13       56.64400000       50.57500000        6.06900000
13       18.20700000       54.62100000        4.04600000
13       18.20700000       52.59800000        6.06900000
13       20.23000000       52.59800000        4.04600000
13       22.25300000       54.62100000        4.04600000
13       20.23000000       54.62100000        6.06900000
13       22.25300000       52.59800000        6.06900000
13       24.27600000       52.59800000        4.04600000
13       24.27600000       54.62100000        6.06900000
13       46.52900000       54.62100000        4.04600000
13       44.50600000       54.62100000        6.06900000
13       46.52900000       52.59800000        6.06900000
13       48.55200000       52.59800000        4.04600000
13       50.57500000       54.62100000        4.04600000
13       48.55200000       54.62100000        6.06900000
13       50.57500000       52.59800000        6.06900000
13       52.59800000       52.59800000        4.04600000
13       52.59800000       54.62100000        6.06900000
13       54.62100000       52.59800000        6.06900000
13       18.20700000       58.66700000        4.04600000
13       18.20700000       56.64400000        6.06900000
13       20.23000000       56.64400000        4.04600000
13       22.25300000       58.66700000        4.04600000
13       20.23000000       58.66700000        6.06900000
13       22.25300000       56.64400000        6.06900000
13       24.27600000       56.64400000        4.04600000
13       42.48300000       58.66700000        4.04600000
13       44.50600000       56.64400000        4.04600000
13       46.52900000       58.66700000        4.04600000
13       44.50600000       58.66700000        6.06900000
13       46.52900000       56.64400000        6.06900000
13       48.55200000       56.64400000        4.04600000
13       50.57500000       58.66700000        4.04600000
13       48.55200000       58.66700000        6.06900000
13       50.57500000       56.64400000        6.06900000
13       52.59800000       56.64400000        4.04600000
13       20.23000000       60.69000000        4.04600000
13       42.48300000       60.69000000        6.06900000
13       44.50600000       60.69000000        4.04600000
13       46.52900000       62.71300000        4.04600000
13       46.52900000       60.69000000        6.06900000
13       48.55200000       60.69000000        4.04600000
13       82.94300000       74.85100000        4.04600000
13       84.96600000       72.82800000        4.04600000
13       86.98900000       74.85100000        4.04600000
13       84.96600000       74.85100000        6.06900000
13       89.01200000       74.85100000        6.06900000
13       80.92000000       76.87400000        4.04600000
13       82.94300000       78.89700000        4.04600000
13       82.94300000       76.87400000        6.06900000
13       84.96600000       76.87400000        4.04600000
13       86.98900000       78.89700000        4.04600000
13       84.96600000       78.89700000        6.06900000
13       86.98900000       76.87400000        6.06900000
13       89.01200000       76.87400000        4.04600000
13       89.01200000       78.89700000        6.06900000
13       82.94300000       80.92000000        6.06900000
13       84.96600000       80.92000000        4.04600000
13       86.98900000       80.92000000        6.06900000
13       97.10400000       82.94300000        6.06900000
13       99.12700000       80.92000000        6.06900000
13      101.15000000       82.94300000        6.06900000
13       95.08100000       84.96600000        6.06900000
13       97.10400000       84.96600000        4.04600000
13       99.12700000       86.98900000        4.04600000
13       97.10400000       86.98900000        6.06900000
13       99.12700000       84.96600000        6.06900000
13      101.15000000       84.96600000        4.04600000
13      101.15000000       86.98900000        6.06900000
13      127.44900000       86.98900000        4.04600000
13      125.42600000       86.98900000        6.06900000
13      131.49500000       86.98900000        4.04600000
13      129.47200000       86.98900000        6.06900000
13      135.54100000       86.98900000        4.04600000
13      133.51800000       86.98900000        6.06900000
13       95.08100000       91.03500000        4.04600000
13       95.08100000       89.01200000        6.06900000
13       97.10400000       89.01200000        4.04600000
13       99.12700000       91.03500000        4.04600000
13       97.10400000       91.03500000        6.06900000
13       99.12700000       89.01200000        6.06900000
13      101.15000000       89.01200000        4.04600000
13      101.15000000       91.03500000        6.06900000
13      123.40300000       89.01200000        6.06900000
13      125.42600000       89.01200000        4.04600000
13      127.44900000       91.03500000        4.04600000
13      125.42600000       91.03500000        6.06900000
13      127.44900000       89.01200000        6.06900000
13      129.47200000       89.01200000        4.04600000
13      131.49500000       91.03500000        4.04600000
13      129.47200000       91.03500000        6.06900000
13      131.49500000       89.01200000        6.06900000
13      133.51800000       89.01200000        4.04600000
13      135.54100000       91.03500000        4.04600000
13      133.51800000       91.03500000        6.06900000
13       54.62100000       95.08100000        4.04600000
13       52.59800000       95.08100000        6.06900000
13       54.62100000       93.05800000        6.06900000
13       56.64400000       93.05800000        4.04600000
13       58.66700000       95.08100000        4.04600000
13       56.64400000       95.08100000        6.06900000
13       95.08100000       95.08100000        4.04600000
13       95.08100000       93.05800000        6.06900000
13       97.10400000       93.05800000        4.04600000
13       99.12700000       95.08100000        4.04600000
13       97.10400000       95.08100000        6.06900000
13       99.12700000       93.05800000        6.06900000
13      101.15000000       93.05800000        4.04600000
13      101.15000000       95.08100000        6.06900000
13      123.40300000       93.05800000        6.06900000
13      125.42600000       93.05800000        4.04600000
13      127.44900000       93.05800000        6.06900000
13      129.47200000       93.05800000        4.04600000
13      131.49500000       93.05800000        6.06900000
13      133.51800000       93.05800000        4.04600000
13       38.43700000       99.12700000        4.04600000
13       40.46000000       97.10400000        4.04600000
13       42.48300000       99.12700000        4.04600000
13       40.46000000       99.12700000        6.06900000
13       50.57500000       97.10400000        6.06900000
13       52.59800000       97.10400000        4.04600000